 Gaussian 09, Revision A.02,
 Gaussian 09:  IA32W-G09RevA.02 11-Jun-2009

 -----------
 # mp2/6-21G
 -----------

 -----
 title
 -----
 Symbolic Z-matrix:
 Charge =  0 Multiplicity = 1

                         Standard orientation:
 ---------------------------------------------------------------------
 Center     Atomic      Atomic             Coordinates (Angstroms)
 Number     Number       Type             X           Y           Z
 ---------------------------------------------------------------------
      1          1           0        0.000000    0.000000    0.300000
      2          1           0        0.000000    0.000000   -0.300000
 ---------------------------------------------------------------------

 SCF Done:  E(RHF) =  -1.10472133420     A.U. after    4 cycles
 E2 =    -0.1601687168D-01 EUMP2 =    -0.11207382058773D+01

 The electronic state is 1-SGG.
 Alpha  occ. eigenvalues --   -0.63958
 Alpha virt. eigenvalues --    0.30402   0.84868   1.73389

 Mulliken atomic charges:
              1
     1  H    0.000000
     2  H    0.000000
 Sum of Mulliken atomic charges =   0.00000

 Dipole moment (field-independent basis, Debye):
    X=              0.0000    Y=              0.0000    Z=              0.0000  Tot=              0.0000
 Quadrupole moment (field-independent basis, Debye-Ang):
   XX=             -1.8071   YY=             -1.8071   ZZ=             -1.5116
   XY=              0.0000   XZ=              0.0000   YZ=              0.0000

 Normal termination of Gaussian 09 at Thu Nov 07 14:26:15 2013.
